 &FCI NORB= 12,NELEC= 12,MS2= 0,
  ORBSYM=1,1,1,2,3,4,5,5,5,6,7,8,
  ISYM=1,
 /
  0.5346439270232185E+00   1   1   1   1
  0.2863401334137874E-01   2   1   1   1
  0.7753585661502765E-02   2   1   2   1
  0.2852042312265516E+00   2   2   1   1
  0.2995430633599674E-02   2   2   2   1
  0.2334903591011106E+00   2   2   2   2
  0.0000000000000000E+00   3   1   1   1
  0.0000000000000000E+00   3   1   2   1
  0.0000000000000000E+00   3   1   2   2
  0.1476993247281445E-01   3   1   3   1
  0.0000000000000000E+00   3   2   1   1
  0.0000000000000000E+00   3   2   2   1
  0.0000000000000000E+00   3   2   2   2
 -0.2491372546045552E-02   3   2   3   1
  0.9376673767667270E-02   3   2   3   2
  0.4552044420198167E+00   3   3   1   1
  0.1592038244884359E-01   3   3   2   1
  0.2802833767256270E+00   3   3   2   2
  0.0000000000000000E+00   3   3   3   1
  0.0000000000000000E+00   3   3   3   2
  0.4488766236267835E+00   3   3   3   3
  0.4940489278258143E+00   4   4   1   1
  0.2142993908963717E-01   4   4   2   1
  0.2880708705553239E+00   4   4   2   2
 -0.7018151514291855E-02   4   4   3   1
  0.4897415663577208E-02   4   4   3   2
  0.4492004128744086E+00   4   4   3   3
  0.5050242233973111E+00   4   4   4   4
  0.4940489278258145E+00   5   5   1   1
  0.2142993908963708E-01   5   5   2   1
  0.2880708705553237E+00   5   5   2   2
  0.7018151514291813E-02   5   5   3   1
 -0.4897415663577264E-02   5   5   3   2
  0.4492004128744079E+00   5   5   3   3
  0.4741988581459861E+00   5   5   4   4
  0.5050242233973099E+00   5   5   5   5
  0.4552046825788791E+00   6   6   1   1
  0.1592040889140497E-01   6   6   2   1
  0.2802834314197765E+00   6   6   2   2
  0.0000000000000000E+00   6   6   3   1
  0.0000000000000000E+00   6   6   3   2
  0.4364659703855416E+00   6   6   3   3
  0.4492006327708896E+00   6   6   4   4
  0.4492006327708889E+00   6   6   5   5
  0.4488770675454469E+00   6   6   6   6
  0.4606053774371725E+00   7   7   1   1
  0.1806407086768996E-01   7   7   2   1
  0.2774555579120239E+00   7   7   2   2
  0.0000000000000000E+00   7   7   3   1
  0.0000000000000000E+00   7   7   3   2
  0.4531369969357708E+00   7   7   3   3
  0.4503418731904861E+00   7   7   4   4
  0.4503418731904854E+00   7   7   5   5
  0.4403539058192658E+00   7   7   6   6
  0.4605714341187080E+00   7   7   7   7
  0.0000000000000000E+00   8   7   1   1
  0.0000000000000000E+00   8   7   2   1
  0.0000000000000000E+00   8   7   2   2
  0.2454898095971240E-02   8   7   3   1
 -0.5118350432313167E-02   8   7   3   2
  0.0000000000000000E+00   8   7   3   3
 -0.2253271906393350E-02   8   7   4   4
  0.2253271906393353E-02   8   7   5   5
  0.0000000000000000E+00   8   7   6   6
  0.0000000000000000E+00   8   7   7   7
  0.4086432947833094E-02   8   7   8   7
  0.2251645929565617E+00   8   8   1   1
  0.6452634155118299E-02   8   8   2   1
  0.1963869889117490E+00   8   8   2   2
  0.0000000000000000E+00   8   8   3   1
  0.0000000000000000E+00   8   8   3   2
  0.2171473760390226E+00   8   8   3   3
  0.2202614077636009E+00   8   8   4   4
  0.2202614077636007E+00   8   8   5   5
  0.2171474088456848E+00   8   8   6   6
  0.2192816971235182E+00   8   8   7   7
  0.0000000000000000E+00   8   8   8   7
  0.1909480618627622E+00   8   8   8   8
  0.0000000000000000E+00   9   7   1   1
  0.0000000000000000E+00   9   7   2   1
  0.0000000000000000E+00   9   7   2   2
  0.4299216610908810E-02   9   7   3   1
 -0.2542036251029172E-02   9   7   3   2
  0.0000000000000000E+00   9   7   3   3
 -0.2569926127325972E-02   9   7   4   4
  0.2569926127325986E-02   9   7   5   5
  0.0000000000000000E+00   9   7   6   6
  0.0000000000000000E+00   9   7   7   7
  0.1946939805683312E-02   9   7   8   7
  0.0000000000000000E+00   9   7   8   8
  0.1762456385785112E-02   9   7   9   7
  0.2255549486875344E-01   9   8   1   1
 -0.1345036177118548E-02   9   8   2   1
  0.1511182842829103E-01   9   8   2   2
  0.0000000000000000E+00   9   8   3   1
  0.0000000000000000E+00   9   8   3   2
  0.2339161470942735E-01   9   8   3   3
  0.2336362294234307E-01   9   8   4   4
  0.2336362294234322E-01   9   8   5   5
  0.2339162148599932E-01   9   8   6   6
  0.2307255884640347E-01   9   8   7   7
  0.0000000000000000E+00   9   8   8   7
  0.6501513877412867E-02   9   8   8   8
  0.0000000000000000E+00   9   8   9   7
  0.5348012532041897E-02   9   8   9   8
  0.1467161519215304E+00   9   9   1   1
  0.3433349274397776E-02   9   9   2   1
  0.1289405804048250E+00   9   9   2   2
  0.0000000000000000E+00   9   9   3   1
  0.0000000000000000E+00   9   9   3   2
  0.1408981933187717E+00   9   9   3   3
  0.1433492138239508E+00   9   9   4   4
  0.1433492138239510E+00   9   9   5   5
  0.1408982136301146E+00   9   9   6   6
  0.1418169530374027E+00   9   9   7   7
  0.0000000000000000E+00   9   9   8   7
  0.1297681341799813E+00   9   9   8   8
  0.0000000000000000E+00   9   9   9   7
 -0.4107173905688710E-02   9   9   9   8
  0.1362886429648142E+00   9   9   9   9
  0.1945215314016727E+00  10  10   1   1
  0.3926265823429821E-02  10  10   2   1
  0.1649316574385920E+00  10  10   2   2
 -0.1841935526681177E-02  10  10   3   1
  0.2894070761650097E-02  10  10   3   2
  0.1883227803957094E+00  10  10   3   3
  0.1944257812986618E+00  10  10   4   4
  0.1896558836881079E+00  10  10   5   5
  0.1883228137015016E+00  10  10   6   6
  0.1896927714432921E+00  10  10   7   7
 -0.3062598962844230E-02  10  10   8   7
  0.1570481815001404E+00  10  10   8   8
 -0.1147135748688594E-02  10  10   9   7
  0.5307908857799970E-02  10  10   9   8
  0.1185359574326075E+00  10  10   9   9
  0.1466185818415689E+00  10  10  10  10
  0.1945215314017352E+00  11  11   1   1
  0.3926265823440833E-02  11  11   2   1
  0.1649316574386169E+00  11  11   2   2
  0.1841935526681111E-02  11  11   3   1
 -0.2894070761647936E-02  11  11   3   2
  0.1883227803957576E+00  11  11   3   3
  0.1896558836881622E+00  11  11   4   4
  0.1944257812987186E+00  11  11   5   5
  0.1883228137015497E+00  11  11   6   6
  0.1896927714433437E+00  11  11   7   7
  0.3062598962843483E-02  11  11   8   7
  0.1570481815001759E+00  11  11   8   8
  0.1147135748687889E-02  11  11   9   7
  0.5307908857779708E-02  11  11   9   8
  0.1185359574325613E+00  11  11   9   9
  0.1351669692821183E+00  11  11  10  10
  0.1466185818416099E+00  11  11  11  11
  0.4606055298968170E+00  12  12   1   1
  0.1806408493425649E-01  12  12   2   1
  0.2774555986803395E+00  12  12   2   2
  0.0000000000000000E+00  12  12   3   1
  0.0000000000000000E+00  12  12   3   2
  0.4403538181894102E+00  12  12   3   3
  0.4503420161559414E+00  12  12   4   4
  0.4503420161559406E+00  12  12   5   5
  0.4531373764436619E+00  12  12   6   6
  0.4468849588898370E+00  12  12   7   7
  0.0000000000000000E+00  12  12   8   7
  0.2192817159099557E+00  12  12   8   8
  0.0000000000000000E+00  12  12   9   7
  0.2307256436548055E-01  12  12   9   8
  0.1418169646196255E+00  12  12   9   9
  0.1896927914230160E+00  12  12  10  10
  0.1896927914230678E+00  12  12  11  11
  0.4605717331126704E+00  12  12  12  12
  0.1103892352968481E-01   4   1   4   1
  0.2151281040664267E-02   4   2   4   1
  0.1182494620752881E-01   4   2   4   2
  0.3564953071399627E-02   4   3   4   1
  0.6953751000105249E-02   4   3   4   2
  0.1504141448674208E-01   4   3   4   3
  0.3564955234081861E-02   6   5   4   1
  0.6953747558866901E-02   6   5   4   2
  0.7356719217828181E-02   6   5   4   3
  0.1504142141876764E-01   6   5   6   5
 -0.1821806720794684E-02  10   7   4   1
  0.4407036360519986E-03  10   7   4   2
 -0.3111863557082339E-02  10   7   4   3
 -0.1261929087899109E-02  10   7   6   5
  0.3689271474115928E-02  10   7  10   7
  0.2208418107691828E-02  10   8   4   1
 -0.2528661471621163E-02  10   8   4   2
 -0.1146465802365022E-02  10   8   4   3
 -0.1146462742184932E-02  10   8   6   5
 -0.5863837763310805E-02  10   8  10   7
  0.2142805269805666E-01  10   8  10   8
 -0.4706630260517331E-03  10   9   4   1
 -0.9152601741075248E-03  10   9   4   2
 -0.6573970412615596E-03  10   9   4   3
 -0.6573966036663105E-03  10   9   6   5
 -0.2192818897796017E-03  10   9  10   7
 -0.9188681920482546E-03  10   9  10   8
  0.3854247590554017E-02  10   9  10   9
 -0.1821806157663817E-02  12  11   4   1
  0.4407015344809804E-03  12  11   4   2
 -0.1261928814278048E-02  12  11   4   3
 -0.3111868731599594E-02  12  11   6   5
  0.1962494199048859E-02  12  11  10   7
 -0.5863827547348629E-02  12  11  10   8
 -0.2192817795393263E-03  12  11  10   9
  0.3689265549595653E-02  12  11  12  11
  0.1103892352968489E-01   5   1   5   1
  0.2151281040664134E-02   5   2   5   1
  0.1182494620752933E-01   5   2   5   2
 -0.3564953071399552E-02   5   3   5   1
 -0.6953751000105473E-02   5   3   5   2
  0.1504141448674217E-01   5   3   5   3
  0.3564955234061368E-02   6   4   5   1
  0.6953747558762733E-02   6   4   5   2
 -0.7356719217828181E-02   6   4   5   3
  0.1504142141876755E-01   6   4   6   4
  0.1821806720795436E-02  11   7   5   1
 -0.4407036360507869E-03  11   7   5   2
 -0.3111863557085470E-02  11   7   5   3
  0.1261929087900878E-02  11   7   6   4
  0.3689271474116568E-02  11   7  11   7
  0.2208418107692386E-02  11   8   5   1
 -0.2528661471618732E-02  11   8   5   2
  0.1146465802363977E-02  11   8   5   3
 -0.1146462742183443E-02  11   8   6   4
  0.5863837763309907E-02  11   8  11   7
  0.2142805269806401E-01  11   8  11   8
 -0.4706630260529763E-03  11   9   5   1
 -0.9152601741061225E-03  11   9   5   2
  0.6573970412610920E-03  11   9   5   3
 -0.6573966036657870E-03  11   9   6   4
  0.2192818897765597E-03  11   9  11   7
 -0.9188681920614341E-03  11   9  11   8
  0.3854247590559392E-02  11   9  11   9
 -0.1821806157663138E-02  12  10   5   1
  0.4407015344826021E-03  12  10   5   2
  0.1261928814276278E-02  12  10   5   3
 -0.3111868731596465E-02  12  10   6   4
 -0.1962494199048859E-02  12  10  11   7
 -0.5863827519569024E-02  12  10  11   8
 -0.2192816049466357E-03  12  10  11   9
  0.3689265549595012E-02  12  10  12  10
  0.1541268262585656E-01   5   4   5   4
 -0.7018153956759893E-02   6   1   5   4
  0.1476994652448977E-01   6   1   6   1
  0.4897409494795495E-02   6   2   5   4
 -0.2491362650297764E-02   6   2   6   1
  0.9376653985873114E-02   6   2   6   2
  0.0000000000000000E+00   6   3   5   4
  0.0000000000000000E+00   6   3   6   1
  0.0000000000000000E+00   6   3   6   2
  0.6205437600086713E-02   6   3   6   3
  0.2384948794465943E-02  11  10   5   4
 -0.1841935077673273E-02  11  10   6   1
  0.2894064130069394E-02  11  10   6   2
  0.0000000000000000E+00  11  10   6   3
  0.5725806175274348E-02  11  10  11  10
  0.0000000000000000E+00  12   7   5   4
  0.0000000000000000E+00  12   7   6   1
  0.0000000000000000E+00  12   7   6   2
  0.6391662342256607E-02  12   7   6   3
  0.0000000000000000E+00  12   7  11  10
  0.6843312362441961E-02  12   7  12   7
 -0.2253270088392100E-02  12   8   5   4
  0.2454895091282655E-02  12   8   6   1
 -0.5118340249233150E-02  12   8   6   2
  0.0000000000000000E+00  12   8   6   3
 -0.3062594113867305E-02  12   8  11  10
  0.0000000000000000E+00  12   8  12   7
  0.4086425471486830E-02  12   8  12   8
 -0.2569925889404901E-02  12   9   5   4
  0.4299217938445459E-02  12   9   6   1
 -0.2542031286166222E-02  12   9   6   2
  0.0000000000000000E+00  12   9   6   3
 -0.1147135087169366E-02  12   9  11  10
  0.0000000000000000E+00  12   9  12   7
  0.1946937308942611E-02  12   9  12   8
  0.1762455656836924E-02  12   9  12   9
  0.1533530011017858E-01   7   1   7   1
 -0.5512033925669744E-03   7   2   7   1
  0.5393164093072352E-02   7   2   7   2
  0.0000000000000000E+00   7   3   7   1
  0.0000000000000000E+00   7   3   7   2
  0.1921132784917856E+00   7   3   7   3
  0.0000000000000000E+00   8   1   7   1
  0.0000000000000000E+00   8   1   7   2
  0.3218507036721683E-02   8   1   7   3
  0.3882861159853658E-02   8   1   8   1
  0.0000000000000000E+00   8   2   7   1
  0.0000000000000000E+00   8   2   7   2
 -0.5170905216097660E-01   8   2   7   3
  0.4005278862812892E-02   8   2   8   1
  0.4412840493730935E-01   8   2   8   2
  0.1949179146646925E-02   8   3   7   1
 -0.3712755774253286E-02   8   3   7   2
  0.0000000000000000E+00   8   3   7   3
  0.0000000000000000E+00   8   3   8   1
  0.0000000000000000E+00   8   3   8   2
  0.2859806071128017E-02   8   3   8   3
  0.0000000000000000E+00   9   1   7   1
  0.0000000000000000E+00   9   1   7   2
  0.4395739410586619E-01   9   1   7   3
  0.7575511379658843E-03   9   1   8   1
 -0.1460463571905481E-01   9   1   8   2
  0.0000000000000000E+00   9   1   8   3
  0.1319644160147277E-01   9   1   9   1
  0.0000000000000000E+00   9   2   7   1
  0.0000000000000000E+00   9   2   7   2
 -0.9384409908138741E-02   9   2   7   3
 -0.1499408956782461E-02   9   2   8   1
  0.3621729804099743E-02   9   2   8   2
  0.0000000000000000E+00   9   2   8   3
 -0.2008497663056164E-02   9   2   9   1
  0.2831828169117681E-02   9   2   9   2
  0.4019364960878322E-02   9   3   7   1
 -0.1706618889592608E-02   9   3   7   2
  0.0000000000000000E+00   9   3   7   3
  0.0000000000000000E+00   9   3   8   1
  0.0000000000000000E+00   9   3   8   2
  0.1546428400031969E-02   9   3   8   3
  0.0000000000000000E+00   9   3   9   1
  0.0000000000000000E+00   9   3   9   2
  0.1527443798087797E-02   9   3   9   3
  0.1939989576830124E-02  10   4   7   1
 -0.3550352200940877E-03  10   4   7   2
 -0.5440783078216434E-01  10   4   7   3
  0.1204239613256852E-03  10   4   8   1
  0.1766412321100404E-01  10   4   8   2
  0.5437699959167464E-03  10   4   8   3
 -0.1481951472831265E-01  10   4   9   1
  0.2242665897664284E-02  10   4   9   2
  0.5660533180955812E-03  10   4   9   3
  0.2046412025788907E-01  10   4  10   4
 -0.1939989576831465E-02  11   5   7   1
  0.3550352200942515E-03  11   5   7   2
 -0.5440783078220488E-01  11   5   7   3
  0.1204239613258646E-03  11   5   8   1
  0.1766412321101827E-01  11   5   8   2
 -0.5437699959170652E-03  11   5   8   3
 -0.1481951472832407E-01  11   5   9   1
  0.2242665897665726E-02  11   5   9   2
 -0.5660533180959452E-03  11   5   9   3
  0.1794597224103777E-01  11   5  10   4
  0.2046412025791946E-01  11   5  11   5
  0.0000000000000000E+00  12   6   7   1
  0.0000000000000000E+00  12   6   7   2
  0.1795358586630357E+00  12   6   7   3
  0.3218509509217472E-02  12   6   8   1
 -0.5170906525221924E-01  12   6   8   2
  0.0000000000000000E+00  12   6   8   3
  0.4395742564449365E-01  12   6   9   1
 -0.9384412016482853E-02  12   6   9   2
  0.0000000000000000E+00  12   6   9   3
 -0.5440787147593557E-01  12   6  10   4
 -0.5440787147597607E-01  12   6  11   5
  0.1921135641720922E+00  12   6  12   6
  0.1102359343570118E-01   7   4   7   4
 -0.3288010509968555E-03   8   4   7   4
  0.1807641396686684E-02   8   4   8   4
  0.3359843997742246E-03   9   4   7   4
  0.3801933339121927E-03   9   4   8   4
  0.6269556380858369E-03   9   4   9   4
 -0.1157902918411294E-02  10   1   7   4
  0.2042296059612042E-03  10   1   8   4
 -0.5012264961742427E-03  10   1   9   4
  0.1428005915262558E-02  10   1  10   1
 -0.1250806812362514E-02  10   2   7   4
  0.1899031925350891E-02  10   2   8   4
 -0.3319719748595433E-05  10   2   9   4
  0.3917036808469625E-03  10   2  10   1
  0.8773178143641626E-02  10   2  10   2
 -0.3587893086037264E-02  10   3   7   4
  0.6472169501508855E-03  10   3   8   4
 -0.2453099272794883E-03  10   3   9   4
  0.1104277766251088E-03  10   3  10   1
  0.2499216571506480E-02  10   3  10   2
  0.2448966163738225E-02  10   3  10   3
 -0.1667217573855646E-02  11   6   7   4
  0.6472162350346221E-03  11   6   8   4
 -0.2453099728986559E-03  11   6   9   4
  0.1104279732588078E-03  11   6  10   1
  0.2499210545042355E-02  11   6  10   2
  0.1133655959577681E-02  11   6  10   3
  0.2448963306484473E-02  11   6  11   6
  0.4768631015873362E-02  12   5   7   4
 -0.3288006397687768E-03  12   5   8   4
  0.3359846455734692E-03  12   5   9   4
 -0.1157903144402969E-02  12   5  10   1
 -0.1250806791313409E-02  12   5  10   2
 -0.1667217648296576E-02  12   5  10   3
 -0.3587895529128541E-02  12   5  11   6
  0.1102359977073764E-01  12   5  12   5
  0.1102359343570113E-01   7   5   7   5
  0.3288010509967657E-03   8   5   7   5
  0.1807641396686587E-02   8   5   8   5
 -0.3359843997742135E-03   9   5   7   5
  0.3801933339122693E-03   9   5   8   5
  0.6269556380860877E-03   9   5   9   5
  0.1667217573854547E-02  10   6   7   5
  0.6472162350343983E-03  10   6   8   5
 -0.2453099728985582E-03  10   6   9   5
  0.2448963306483322E-02  10   6  10   6
  0.1157902918412435E-02  11   1   7   5
  0.2042296059617644E-03  11   1   8   5
 -0.5012264961746732E-03  11   1   9   5
  0.1104279732593226E-03  11   1  10   6
  0.1428005915264601E-02  11   1  11   1
  0.1250806812362802E-02  11   2   7   5
  0.1899031925351904E-02  11   2   8   5
 -0.3319719748498135E-05  11   2   9   5
  0.2499210545042765E-02  11   2  10   6
  0.3917036808505941E-03  11   2  11   1
  0.8773178143642604E-02  11   2  11   2
 -0.3587893086039615E-02  11   3   7   5
 -0.6472169501508953E-03  11   3   8   5
  0.2453099272796468E-03  11   3   9   5
 -0.1133655959577682E-02  11   3  10   6
 -0.1104277766263616E-03  11   3  11   1
 -0.2499216571505883E-02  11   3  11   2
  0.2448966163739375E-02  11   3  11   3
 -0.4768631015873364E-02  12   4   7   5
 -0.3288006397687503E-03  12   4   8   5
  0.3359846455734945E-03  12   4   9   5
 -0.3587895529126191E-02  12   4  10   6
 -0.1157903144404082E-02  12   4  11   1
 -0.1250806791313928E-02  12   4  11   2
  0.1667217648297672E-02  12   4  11   3
  0.1102359977073769E-01  12   4  12   4
  0.6288782788709217E-02   7   6   7   6
  0.0000000000000000E+00   8   6   7   6
  0.2859799581245183E-02   8   6   8   6
  0.0000000000000000E+00   9   6   7   6
  0.1546425751294346E-02   9   6   8   6
  0.1527443263805058E-02   9   6   9   6
  0.0000000000000000E+00  10   5   7   6
  0.5437694406996452E-03  10   5   8   6
  0.5660533937753336E-03  10   5   9   6
  0.1259074002725839E-02  10   5  10   5
  0.0000000000000000E+00  11   4   7   6
  0.5437694407000883E-03  11   4   8   6
  0.5660533937757831E-03  11   4   9   6
  0.1259074011773184E-02  11   4  10   5
  0.1259074002727655E-02  11   4  11   4
  0.0000000000000000E+00  12   1   7   6
  0.1949176754593351E-02  12   1   8   6
  0.4019366553904516E-02  12   1   9   6
  0.1939990202055249E-02  12   1  10   5
  0.1939990202056681E-02  12   1  11   4
  0.1533530904522495E-01  12   1  12   1
  0.0000000000000000E+00  12   2   7   6
 -0.3712749449452922E-02  12   2   8   6
 -0.1706615909852664E-02  12   2   9   6
 -0.3550346456667387E-03  12   2  10   5
 -0.3550346456670345E-03  12   2  11   4
 -0.5511996725794305E-03  12   2  12   1
  0.5393158649246005E-02  12   2  12   2
  0.6288781334212870E-02  12   3   7   6
  0.0000000000000000E+00  12   3   8   6
  0.0000000000000000E+00  12   3   9   6
  0.0000000000000000E+00  12   3  10   5
  0.0000000000000000E+00  12   3  11   4
  0.0000000000000000E+00  12   3  12   1
  0.0000000000000000E+00  12   3  12   2
  0.6288779879653983E-02  12   3  12   3
 -0.5207855997474815E+01   1   1   0   0
 -0.1872476050284994E+00   2   1   0   0
 -0.3251942228229094E+01   2   2   0   0
  0.3914359567337231E-15   3   1   0   0
 -0.1087385828368132E-14   3   2   0   0
 -0.4784963682023132E+01   3   3   0   0
 -0.5105572668331761E+01   4   4   0   0
 -0.5105572668331755E+01   5   5   0   0
 -0.4784965785851353E+01   6   6   0   0
 -0.4743110473426536E+01   7   7   0   0
  0.6160611965873409E-15   8   7   0   0
 -0.2523588434515510E+01   8   8   0   0
  0.3936361451256091E-15   9   7   0   0
 -0.2196866948040332E+00   9   8   0   0
 -0.1579570878404155E+01   9   9   0   0
 -0.2128058304348252E+01  10  10   0   0
 -0.2128058304348796E+01  11  11   0   0
 -0.4743111875998673E+01  12  12   0   0
 -0.2055826383023839E+04   0   0   0   0
